# vtk DataFile Version 3.0
FlexPDE 7.15/L64 temp.pde  13:27:38 4/21/20 Typical blood cell file for cancer adaptation (requires include file defns)"
ASCII
DATASET UNSTRUCTURED_GRID
POINTS 5622 float
 -25 -5 0
 -1.85495 -5 0
 0.266369 -5.87868 0
 14.8715 -20.4838 0
 20.4838 -14.8715 0
 7.73363 -2.12132 0
 7.73363 2.12132 0
 20.4838 14.8715 0
 14.8715 20.4838 0
 0.266369 5.87868 0
 -1.85495 5 0
 -25 5 0
 -25 -4 0
 -1.85495 -4 0
 0.973476 -5.17157 0
 15.5786 -19.7767 0
 19.7767 -15.5786 0
 7.02652 -2.82843 0
 5.93327 -0.787652 0
 6.11914 1.42959 0
 7.02652 2.82843 0
 19.7767 15.5786 0
 15.5786 19.7767 0
 0.973476 5.17157 0
 -1.85495 4 0
 -25 4 0
 5.91395 2.24713 0
 5.32593 2.97176 0
 4.46663 3.30076 0
 3.57323 3.446 0
 2.70681 3.62677 0
 1.84329 3.55143 0
 1.24248 2.95243 0
 1.04529 2.11012 0
 1.0688 1.21453 0
 1.23288 0.30959 0
 1.54769 -0.55996 0
 2.0143 -1.3382 0
 2.61762 -1.97984 0
 3.3703 -2.39875 0
 4.22521 -2.47228 0
 5.04141 -2.17762 0
 5.63996 -1.52218 0
 5.87091 -0.629429 0
 5.85822 0.335832 0
 6.03497 1.29925 0
 -23.0534 -5 0
 -21.1067 -5 0
 -19.1601 -5 0
 -17.2135 -5 0
 -15.2668 -5 0
 -13.3202 -5 0
 -11.3735 -5 0
 -9.4269 -5 0
 -7.48027 -5 0
 -5.53363 -5 0
 -3.58714 -5 0
 1.58943 -7.20174 0
 3.06514 -8.67745 0
 4.54085 -10.1532 0
 6.01655 -11.6289 0
 7.49226 -13.1046 0
 8.96796 -14.5803 0
 10.4437 -16.056 0
 11.9194 -17.5317 0
 13.3951 -19.0074 0
 19.0441 -13.4318 0
 17.6043 -11.992 0
 16.1646 -10.5523 0
 14.7248 -9.11251 0
 13.2851 -7.67276 0
 11.8453 -6.23301 0
 10.4451 -4.83283 0
 9.30866 -3.69635 0
 8.42233 -2.81002 0
 7.29479 -1.56383 0
 7.04546 -1.05202 0
 6.91327 -0.58867 0
 6.85892 -0.154215 0
 6.87376 0.335373 0
 6.96239 0.795684 0
 7.10944 1.20919 0
 7.35024 1.65119 0
 8.28236 2.67005 0
 8.9748 3.36249 0
 9.8375 4.22519 0
 10.922 5.30969 0
 12.2533 6.64103 0
 13.625 8.01266 0
 14.9966 9.38429 0
 16.3682 10.7559 0
 17.7399 12.1275 0
 19.1115 13.4992 0
 13.5128 19.1252 0
 12.1542 17.7665 0
 10.7955 16.4078 0
 9.43682 15.0491 0
 8.07814 13.6905 0
 6.71947 12.3318 0
 5.3608 10.9731 0
 4.00212 9.61443 0
 2.64345 8.25576 0
 1.37265 6.98496 0
 -0.704134 5.22951 0
 -3.58589 5 0
 -5.53239 5 0
 -7.47905 5 0
 -9.42571 5 0
 -11.3724 5 0
 -13.319 5 0
 -15.2657 5 0
 -17.2124 5 0
 -19.159 5 0
 -21.1057 5 0
 -23.0523 5 0
 -23.0643 -4 0
 -21.1286 -4 0
 -19.1929 -4 0
 -17.2571 -4 0
 -15.3214 -4 0
 -13.3857 -4 0
 -11.45 -4 0
 -9.51428 -4 0
 -7.57856 -4 0
 -5.64285 -4 0
 -3.70713 -4 0
 -0.300871 -4.31424 0
 2.32257 -6.52067 0
 3.78789 -7.98598 0
 5.26164 -9.45973 0
 6.73539 -10.9335 0
 8.20914 -12.4072 0
 9.68289 -13.881 0
 11.1566 -15.3547 0
 12.6304 -16.8285 0
 14.1041 -18.3022 0
 18.3174 -14.1193 0
 16.8582 -12.6601 0
 15.3989 -11.2008 0
 13.9396 -9.74151 0
 12.4803 -8.28223 0
 11.021 -6.82295 0
 9.63017 -5.43207 0
 8.53227 -4.33417 0
 7.6831 -3.485 0
 6.5465 -2.24815 0
 6.25902 -1.75193 0
 6.08985 -1.35055 0
 5.99089 -1.03393 0
 6.19668 1.61772 0
 6.30694 1.84706 0
 6.4655 2.12406 0
 6.69467 2.45207 0
 7.52195 3.32386 0
 8.15649 3.9584 0
 8.9703 4.7722 0
 10.0143 5.81621 0
 11.3371 7.139 0
 12.7436 8.54548 0
 14.1501 9.95197 0
 15.5566 11.3585 0
 16.963 12.7649 0
 18.3695 14.1714 0
 14.1869 18.385 0
 12.7952 16.9933 0
 11.4036 15.6017 0
 10.0119 14.21 0
 8.62019 12.8183 0
 7.2285 11.4266 0
 5.83682 10.0349 0
 4.44513 8.64323 0
 3.09333 7.29142 0
 1.94656 6.14465 0
 -0.236736 4.34194 0
 -3.66893 4 0
 -5.60803 4 0
 -7.54712 4 0
 -9.48622 4 0
 -11.4253 4 0
 -13.3644 4 0
 -15.3035 4 0
 -17.2426 4 0
 -19.1817 4 0
 -21.1208 4 0
 -23.0599 4 0
 5.64726 2.57578 0
 5.36822 -1.81974 0
 5.74134 -1.13027 0
 5.81403 -0.849292 0
 5.8676 -0.377805 0
 5.86345 -0.0618011 0
 5.93133 0.73435 0
 5.98914 1.04947 0
 6.00573 1.52828 0
 5.96746 1.82803 0
 -25 1.51709 0
 -25 -1.51639 0
 16.9035 -18.4519 0
 18.4515 -16.9038 0
 18.4519 16.9035 0
 16.9038 18.4515 0
 7.58959 2.67437 0
 7.64593 -2.73381 0
 7.22809 2.28918 0
 6.89741 1.99092 0
 6.91969 1.54499 0
 6.62487 1.77221 0
 6.4266 1.61234 0
 6.61723 1.42185 0
 6.7959 1.13771 0
 6.34853 1.38632 0
 7.18095 -2.2313 0
 6.49054 1.10814 0
 6.6411 0.764658 0
 6.78989 -1.80085 0
 6.87798 -1.39257 0
 6.50152 -1.41594 0
 6.3245 -1.0833 0
 6.70038 -1.04489 0
 6.19469 -0.826867 0
 6.51434 -0.75958 0
 6.59822 -0.387853 0
 6.32509 -0.55406 0
 6.09361 -0.640332 0
 6.51007 0.0204569 0
 6.4546 0.432983 0
 6.34863 -0.284314 0
 6.10787 -0.425535 0
 -22.295 -1.98591 0
 -23.2089 -0.0063065 0
 -22.2968 1.95621 0
 -20.1105 -2.0242 0
 -18.056 -2.06531 0
 -16.3059 -2.40066 0
 -14.5658 -2.00161 0
 -12.5045 -1.96244 0
 -10.4068 -2.00779 0
 -8.34881 -2.03034 0
 -6.39815 -2.22437 0
 -4.40461 -2.37846 0
 -2.50659 -2.42816 0
 -21.1174 -0.016151 0
 -20.0872 1.98091 0
 -18.9184 -0.0529717 0
 -16.4718 -0.260123 0
 -17.9457 1.95135 0
 -15.8617 2.00089 0
 -14.1411 2.40433 0
 -13.9098 0.262082 0
 -12.3812 2.06626 0
 -11.4795 0.0502558 0
 -10.3659 2.02671 0
 -8.3105 2.02188 0
 -6.31552 2.15841 0
 -4.4043 2.45389 0
 -2.67656 2.73395 0
 -9.29436 0.00444362 0
 -7.0048 -0.0208158 0
 -5.15942 -0.896489 0
 -4.86966 0.714993 0
 -3.09115 -0.642726 0
 -3.02519 1.1829 0
 -0.799082 -2.66526 0
 -0.974845 -1.08009 0
 -1.31427 0.388789 0
 -1.48953 1.79498 0
 -1.19847 3.07974 0
 6.2714 0.826759 0
 6.22188 1.16686 0
 16.3155 -15.6503 0
 14.218 -15.8637 0
 12.8879 -14.8428 0
 14.5832 -13.5485 0
 11.9056 -13.0823 0
 13.543 -11.6932 0
 12.0009 -10.5543 0
 10.2611 -9.10717 0
 9.02967 -7.36377 0
 10.1807 -11.6402 0
 8.67565 -10.6234 0
 7.77978 -9.1754 0
 8.05804 -5.90489 0
 7.03562 -7.58441 0
 5.33232 -7.3609 0
 4.01515 -6.66235 0
 7.30371 -4.70976 0
 6.51849 -6.04717 0
 5.11163 -5.85629 0
 6.71423 -3.77868 0
 6.07007 -4.80056 0
 6.28192 -3.06125 0
 5.7162 -3.78551 0
 4.89354 -4.64418 0
 3.7296 -5.47106 0
 2.51205 -4.81923 0
 5.98693 -2.55924 0
 6.05469 -2.11496 0
 5.43575 -2.90221 0
 4.77078 -3.65397 0
 5.86889 -1.70837 0
 3.80494 -4.25407 0
 5.60244 -2.2343 0
 4.7054 -2.89245 0
 6.14653 -0.141461 0
 3.92427 -3.24314 0
 6.16734 0.181595 0
 6.14028 0.504797 0
 6.18166 2.11251 0
 2.95944 -3.5497 0
 2.4113 -2.81657 0
 1.58685 -3.68273 0
 0.488309 -2.93208 0
 1.58419 -2.34378 0
 0.705098 -1.42933 0
 0.34213 0.00837481 0
 -0.0543352 1.27127 0
 -0.2718 2.35621 0
 0.524467 2.90947 0
 -0.10839 3.3496 0
 0.866163 3.8956 0
 1.87403 4.54122 0
 6.29475 2.47489 0
 6.01795 2.73855 0
 5.79762 3.23908 0
 6.44078 2.98731 0
 6.84922 3.53749 0
 6.24093 3.64855 0
 7.28905 4.24369 0
 6.44896 4.34931 0
 7.85532 5.13841 0
 6.76684 5.25726 0
 8.58544 6.28404 0
 7.19072 6.43213 0
 9.54112 7.72044 0
 7.73634 7.97601 0
 10.788 9.33062 0
 12.2674 10.8437 0
 13.7389 12.3139 0
 15.2261 13.8079 0
 16.7792 15.3681 0
 14.93 16.335 0
 13.3349 14.7271 0
 11.8337 13.2487 0
 10.3226 11.7196 0
 8.61802 9.93818 0
 5.9911 7.85118 0
 4.60904 7.06387 0
 5.8493 6.32184 0
 5.7399 5.11866 0
 5.69545 4.13043 0
 5.106 3.69116 0
 4.75481 5.76973 0
 3.5013 6.102 0
 2.83902 5.03518 0
 3.43232 4.27344 0
 3.94839 5.04016 0
 4.25023 4.08659 0
 4.92772 4.64525 0
 -0.706901 -5.22836 0
 -0.0172507 -5.09646 0
 -1.07791 -4.65712 0
 -1.06219 -4.07935 0
 1.28146 -6.18666 0
 0.0148165 5.11031 0
 1.64802 -5.84612 0
 1.80201 -6.35366 0
 -0.186995 5.50642 0
 -1.27954 4.61475 0
 1.10646 6.01167 0
 -2.72105 -4.5 0
 -2.78104 -4 0
 2.29042 4.084 0
 2.69386 -7.59906 0
 3.05523 -7.25333 0
 3.24087 -7.79252 0
 -1.26821 5.05794 0
 3.16487 -2.97422 0
 1.3701 4.21841 0
 2.23299 7.13819 0
 1.6596 6.5648 0
 1.35473 3.72352 0
 4.16437 -9.06957 0
 -4.62038 -4.5 0
 -4.67499 -4 0
 3.80299 -9.4153 0
 3.61475 -8.87351 0
 0.495477 1.69069 0
 14.4878 -19.393 0
 0.695315 3.40254 0
 10.7331 -5.82789 0
 12.1628 -7.25762 0
 -24.0299 4.5 0
 -24.0321 -4.5 0
 13.6123 -8.70714 0
 15.0619 -10.1567 0
 16.5114 -11.6062 0
 13.0127 -17.9179 0
 17.9609 -13.0557 0
 11.538 -16.4432 0
 5.63909 -10.5443 0
 10.0633 -14.9685 0
 8.58855 -13.4938 0
 19.4104 -14.5052 0
 7.11382 -12.019 0
 9.46941 -4.56421 0
 8.4773 -3.5721 0
 3.64729 -2.82094 0
 1.3597 -1.38376 0
 2.8908 -2.60766 0
 -6.56156 -4.5 0
 -2.72042 4.5 0
 -10.4293 4.5 0
 -12.3722 4.5 0
 9.8769 -4.26459 0
 9.95728 -4.69852 0
 -14.3151 4.5 0
 -8.48642 4.5 0
 -16.2579 4.5 0
 14.1333 -19.7456 0
 13.9415 -19.2002 0
 -18.2008 4.5 0
 -20.1437 4.5 0
 -20.1498 -4.5 0
 -18.2086 -4.5 0
 -16.2674 -4.5 0
 -22.0866 4.5 0
 -22.091 -4.5 0
 -14.3263 -4.5 0
 -12.3851 -4.5 0
 -8.50273 -4.5 0
 2.77292 4.33098 0
 -10.4439 -4.5 0
 11.1452 -5.53292 0
 11.2892 -6.03045 0
 5.2787 -10.891 0
 5.08997 -10.3487 0
 8.92047 -4.01526 0
 2.1009 -2.16181 0
 12.5652 -6.95289 0
 12.7239 -7.46519 0
 18.3242 -12.7119 0
 18.5025 -13.2437 0
 16.8844 -11.2721 0
 17.0578 -11.7991 0
 14.0049 -8.39264 0
 14.1686 -8.90982 0
 15.4447 -9.83239 0
 15.6132 -10.3545 0
 12.6572 -18.2695 0
 12.4661 -17.7248 0
 11.1815 -16.7938 0
 10.9908 -16.2496 0
 9.70581 -15.3181 0
 9.51562 -14.7744 0
 2.51994 6.71804 0
 8.23011 -13.8424 0
 8.0404 -13.2992 0
 -6.54354 4.5 0
 6.7544 -12.3667 0
 6.56519 -11.8239 0
 -1.85495 4.5 0
 0.523614 -0.710477 0
 1.58552 -3.01326 0
 1.99774 -2.58018 0
 -6.50695 -5 0
 -4.60066 4.5 0
 -10.399 5 0
 -9.9275 4.75 0
 -12.3457 5 0
 -11.8723 4.75 0
 -24.0262 5 0
 -23.5411 4.75 0
 -24.0267 -5 0
 -14.2924 5 0
 -13.817 4.75 0
 -22.079 5 0
 -21.5961 4.75 0
 -22.08 -5 0
 -18.1857 5 0
 -17.7066 4.75 0
 -16.239 5 0
 -15.7618 4.75 0
 -20.1323 5 0
 -19.6514 4.75 0
 -20.1334 -5 0
 18.3845 -15.5116 0
 19.0471 -14.849 0
 19.5936 -15.0419 0
 -18.1868 -5 0
 -16.2401 -5 0
 -14.2935 -5 0
 -8.45358 -5 0
 -12.3469 -5 0
 -8.45238 5 0
 -7.98274 4.75 0
 -10.4002 -5 0
 1.14464 -1.88655 0
 0.386745 2.23317 0
 0.784878 2.5098 0
 8.21942 3.31422 0
 0.642992 -3.99848 0
 0.944909 -0.275792 0
 0.705466 0.611454 0
 8.97255 4.06735 0
 3.76923 7.96733 0
 1.91029 5.34293 0
 9.9259 5.0207 0
 -1.65283 -2.54671 0
 11.1295 6.22435 0
 -0.549976 -3.48975 0
 12.0403 7.84224 0
 13.8875 8.98232 0
 15.2766 10.3714 0
 9.04501 13.9502 0
 10.4202 15.3254 0
 16.6656 11.7604 0
 11.7954 16.7006 0
 18.0547 13.1495 0
 13.1706 18.0758 0
 8.6191 11.3782 0
 7.92435 12.1224 0
 19.4441 14.5389 0
 14.5457 19.4509 0
 7.22742 9.98655 0
 6.53266 10.7308 0
 5.14097 9.33907 0
[...]
POINT_DATA 5622
SCALARS u float
LOOKUP_TABLE default
 0 0 0 1.59758e-11 1.5976e-11 0 0 9.58561e-12 9.58547e-12 1.00304e-16
 0 0 0.20151 0.357196 0.418042 0.149928 0.149928 0.118974 0.0975182 0.125792
 0.107343 0.0899566 0.0899566 0.319746 0.222823 0.201506 0.300349 0.355844 0.372787 0.383331
 0.391219 0.386997 0.386221 0.336648 0.29074 0.275942 0.283203 0.294204 0.293378 0.280994
 0.279518 0.278086 0.245275 0.0889194 -0.0280274 0.11573 0 0 0 0
 0 0 0 0 0 0 0 0 0 0
 0 0 0 0 0 0 0 0 0 0
 0 0 0 0 0 0 0 0 5.50526e-18 0
 0 0 0 0 0 0 0 0 0 0
 0 0 0 0 0 0 0 0 0 0
 0 0 0 0 0 0 0 0 0 0
 0 0 0 0 0 0.201375 0.201417 0.201405 0.201357 0.201291
 0.201146 0.200806 0.200386 0.200672 0.205328 0.230731 0.511151 0.242692 0.168686 0.150303
 0.148532 0.149108 0.149505 0.149604 0.149604 0.149659 0.149796 0.149607 0.149621 0.149653
 0.149885 0.150348 0.150134 0.146687 0.136469 0.0868704 0.0786934 0.103657 0.11 0.143262
 0.152897 0.143327 0.122405 0.0976161 0.0934116 0.0915849 0.090586 0.0900819 0.0898229 0.0898279
 0.0898266 0.0898403 0.0899749 0.0898279 0.0898325 0.0898379 0.0898352 0.0896847 0.089344 0.0881388
 0.0903651 0.117206 0.196944 0.331868 0.186536 0.195926 0.201157 0.202189 0.201969 0.201638
 0.201466 0.201379 0.201417 0.201416 0.201373 0.325518 0.260171 0.176636 0.127426 0.0584338
 0.0201481 0.0314376 0.0784576 0.160338 0.218721 1.22526 1.22542 0.705687 0.705766 0.423412
 0.423459 0.0391144 0.036173 0.0502083 0.0662681 0.0409718 0.0862841 0.101693 0.0613006 0.023588
 0.0879409 0.0361723 0.0447846 0.0107869 0.0384098 0.0273473 0.0490095 0.060777 0.0288014 0.0646933
 0.0328697 0.0135054 0.0382722 0.0633449 0.00384297 0.000956762 0.0218772 0.0457005 1.10259 1.39718
 1.11132 1.09111 1.0785 0.966491 1.09743 1.1084 1.09441 1.08989 1.04146 1.04042
 1.16649 1.39717 1.10407 1.39698 1.3921 1.11281 1.09836 0.965965 1.39218 1.07942
 1.39712 1.09196 1.09101 1.03541 0.899973 0.757152 1.39757 1.39807 1.35565 1.33187
 1.36035 1.16498 1.33418 1.24182 1.02795 0.87327 0.659348 0.0286975 0.0734967 0.777423
 0.694688 0.654024 0.754509 0.742783 0.668625 0.717033 0.744872 0.694909 0.714743 0.653146
 0.723165 0.628335 0.800039 0.700749 0.682183 0.537445 0.826625 0.914827 0.425965 0.763815
 0.298256 0.601608 0.954256 1.00799 1.16152 0.200292 0.123711 0.357607 0.790341 0.138893
 1.17519 0.179997 0.50043 0.0203369 0.913353 -0.00174884 0.000682502 0.212021 1.32247 1.21471
 1.4454 1.44758 1.21498 1.02271 0.613095 0.55683 0.637617 0.585139 0.670878 0.735864
 0.737164 0.194806 0.22907 0.256782 0.198139 0.218032 0.263262 0.262147 0.332544 0.311347
 0.406184 0.360127 0.458417 0.403483 0.472279 0.429436 0.431697 0.431668 0.432104 0.432564
 0.432861 0.433716 0.432269 0.433078 0.436248 0.402285 0.379555 0.477963 0.446882 0.348897
 0.356299 0.5096 0.464363 0.650703 0.587582 0.580148 0.488532 0.472405 0 0.145861
 0.130382 0.456986 0.0889289 0.119664 0.310825 0.140898 0 0.0778444 0.0836019 0.069764
 0.269797 0.65902 0.0504453 0.195962 0.0896109 0 1.03924 0.758894 0.0403752 0.0580643
 0.691208 0.0391666 0.0504547 0.213795 0 0.0188953 0.404828 0.0385228 0.680975 0.0387794
 0.038531 0.0487524 0.0487535 0.0383972 0.0383642 0.0383615 0.0383822 0.0383907 0.0383787 0.0377795
 0.0383645 0.0382976 0.0388234 0.0380811 0.0385462 0.0372547 0.736056 0.759664 0.862723 0.0482163
 0.0477577 0.0490125 0.0488739 0 0.0185062 0.0487957 0.0490703 0.0487639 0 0.018232
 0.0487526 0.0487514 0.0487534 0.0487507 0.0487413 0.0487516 0.0487532 0.0487035 0.048618 0.048208
 0.658696 0.0484472 0 0.0184054 0 0.0177628 0.0381311 0.899124 0 0.018244
 0 0.0181833 0 0.0181587 0 0.0181775 0 0.0181609 0 0.0181529
 0 0.0181523 0 0.0181447 0.148303 0 0.0180943 0.048392 0 0.0179412
 0.0663187 0.78021 1.44507 1.21775 0 0.0457905 0 0.0222473 0 0.0221567
 0 0.0220663 0 0 0.0221004 0 0.0220672 0 0 0.0220695
 0 0.0220773 0 0.0220679 0 0.492614 0.150643 0.0753995 0 0
 0 0 0 0 0.0222652 0 1.11104 0.482846 0.439723 0.0285674
 1.17502 0.475282 0.383657 0.0245054 0.0986252 0.519867 0.0233418 1.24039 0.023028 1.11105
 0.0899165 0.0229008 0.0229025 0.0229265 0.0229296 0.0229068 0.0229238 0.0229275 0.0229242 0.308565
 0.0895412 0.023282 0.0230327 0.306982 0.0889153 0.0888739 1.35191 0.275995 0 0.0229316
 0.0229154 0.0226904 0 0.278802 0.036672 1.11136 0.528912 0.379729 0.358909 0.976379
 0.694392 1.31651 0.735797 0.0327643 0.617459 0.840205 0.364315 0.542804 0.762721 0.301416
 0.693905 0.190804 1.29445 0.791763 1.26011 0.700281 1.25196 1.26146 0.749015 0.132293
 0.50123 0.19518 0 0.114367 0.122577 0.276112 0.253594 0.155991 0 0.120833
 0.714751 0.389108 0 0.0270236 1.14531 0 0.648062 0.386609 0.156077 0.0753373
 0 0.0233648 0.100683 0.584828 0.491747 0.149887 0.0743986 0.52028 0.150877 0.0750789
 0.150487 0.0748379 0.828754 0.201973 0.0979789 0.82891 0.201977 0.0979812 0.150139 0.0745849
 0.150018 0.0744998 0.150005 0.0744788 0.150003 0.0744974 0.577774 0.15003 0.0745024 0.150003
 0.0744915 0.149069 0.0737275 0.149961 0.0744743 0.149743 0.0743938 0.074773 0.149189 0.0741222
 0.149449 0.142913 0.635057 0.280256 0.288704 0.668764 0.287186 0.87308 0.202571 0.0974856
 0.0907436 0.202724 0.0983688 0.202398 0.0981725 0.202147 0.0980612 0.202561 0.098472 0.724831
 0.202017 0.0980206 0.202004 0.0980017 0.201993 0.0980007 0.201997 0.0980042 0.201988 0.0980003
 0.201942 0.0979873 0.201994 0.0979992 0.201999 0.0980022 0.201837 0.0979369 0.201584 0.0978213
 0.200919 0.0973109 0.697611 0.201169 0.0975945 0 0.293791 0.824071 0.199879 0.0976512
 0 0.0216429 0.191539 0.0940122 0.0220675 0.0220694 0.0220709 0 0.0220709 0.0220657
 0.0220454 0.021693 0.0219892 0.0218719 0.0145549 0.00746857 1.06507e-12 4.03897e-28 0.00801539 0.0149903
 0.00759739 0.0360839 0.0563789 0.0356969 0.0144034 0.0229706 0.0143812 0.00739652 4.25339e-17 2.28163e-17
 0.00750379 0.0145 0.00742469 0.0355917 0.0143401 0.0358396 0.0562044 0.0228333 0.0143711 0.00739272
 6.23459e-17 0 0.00748756 0.0144787 0.00741723 0.0355858 0.0143371 0.035823 0.0561935 0.0228276
 0.014367 0.00738989 1.98363e-17 -2.2787e-17 0.00748818 0.0144785 0.00741703 0.0355831 0.0143357 0.0358186
 0.0561924 0.0228264 0.0143638 0.00738756 -1.98386e-17 2.2793e-17 0.00748883 0.0144788 0.00741742 0.0355931
 0.0143397 0.0358192 0.0562091 0.022833 0.056248 0.0357917 0.0144889 0.00751162 0.0228718 0.0564425
 0.035851 0.0900974 0.090107 0.0561623 0.0144612 0.00745541 -4.13065e-17 -2.37818e-17 0.00759335 0.0146112
 0.00748737 0.0360349 0.0566235 0.0359141 0.0145137 0.0230217 0.0147742 0.0077231 3.35795e-17 0
 0.00763857 0.0147435 0.00761633 0.036573 0.0150254 0.0364977 0.0573516 0.0234843 0.0161265 0.00889591
 -5.34406e-18 2.27447e-17 0.0080819 0.0155596 0.00831479 0.0386692 0.0171381 0.0378833 0.0590191 0.0252618
 0.0208222 0.0127088 -1.04554e-16 0 0.0098785 0.0187088 0.0109591 0.0236288 0.0137737 0.0297846
 0.031148 0.0221006 0.0345497 0.036665 0.0273387 0.0148653 0.0253275 0.0318596 0.0210712 -7.51129e-17
 2.59279e-17 0.0176081 0.0727391 0.0523174 0.0481817 0.0653141 0.0997342 0.102753 0.0683644 0.202004
 0.202009 0.158148 0.124293 0.124385 0.158236 0.158154 0.0771129 0.0295887 0.00776223 0.0149588
 0.0484844 0.0982511 0.0379928 0.158159 0.124299 0.124409 0.158216 0.201962 0.20202 0.158154
 0.077111 0.0295876 0.00776388 0.0149607 0.0484809 0.0982524 0.0379901 0.15816 0.124302 0.124414
 0.158232 0.20197 0.202021 0.158158 0.0771115 0.0295879 0.00776549 0.0149622 0.0484798 0.0982561
 0.0379886 0.158166 0.124304 0.124416 0.158236 0.201971 0.202028 0.158161 0.0771199 0.0295924
 0.0077677 0.0149647 0.0484838 0.0982636 0.0379918 0.158183 0.124325 0.124448 0.158263 0.202051
 0.202057 0.158203 0.0771485 0.029605 0.00777266 0.0149717 0.0484987 0.0983038 0.0380039 0.158275
 0.124386 0.124488 0.158312 0.202092 0.202156 0.15826 0.0772251 0.0296422 0.00778455 0.0149906
 0.0485429 0.0983923 0.0380438 0.158466 0.124531 0.124614 0.158459 0.202276 0.202376 0.158423
 0.0773775 0.0297234 0.00781056 0.0150345 0.0486439 0.0985687 0.0381343 0.158744 0.124765 0.124842
 0.15873 0.202601 0.202707 0.158697 0.077533 0.029832 0.00785014 0.0151032 0.0487853 0.098753
 0.0382585 0.15872 0.124823 0.124972 0.158898 0.20273 0.202716 0.158784 0.0772009 0.0297489
 0.00785007 0.01511 0.0487142 0.0984067 0.0381809 0.156887 0.123586 0.124088 0.157944 0.201254
 0.200691 0.157433 0.0749213 0.0288028 0.0147083 0.0294566 0.0765909 0.121878 0.0474104 0.15055
 0.11878 0.119998 0.153332 0.194979 0.193332 0.151951 0.0708963 0.0269335 0.0135762 0.0275057
 0.0724757 0.115577 0.0444443 0.131391 0.0790444 0.074939 0.118136 0.19646 0.206605 0.122847
 0.144468 0.0964555 0.0572778 0.0514646 0.0857266 0.0892488 0.0526062 0.0373896 0.0609936 0.0899013
 0.104305 0.0731311 1.05763e-16 -3.43898e-16 0.0335626 0.0572887 0.0358073 0.220694 0.157373 0.116727
 0.118842 0.160174 0.218752 0.158595 9.16019e-17 -3.37338e-17 0.0515546 0.0881855 0.0826826 0.0419989
 0.0474105 0.0149055 0.0297702 0.0298187 0.0150979 -3.33557e-18 -8.3952e-17 0.0149512 0.0616921 0.0777132
 0.0486031 0.0224619 0.0383893 0.0150815 0.0298012 0.0616916 0.0777185 0.0485928 0.0224049 0.0383775
 0 0 0.0149027 0.0297682 0.0149373 0.0150817 0.0298028 0.0616934 0.0777197 0.0485922
 0.0224074 0.0383786 0 0 0.0149036 0.0297694 0.0149378 0.0150817 0.0298028 0.0616915
 0.0777163 0.0485901 0.02241 0.0383781 0 0 0.0149034 0.0297685 0.0149376 0.01508
 0.0297995 0.0616823 0.0777045 0.0485824 0.0224102 0.0383731 0 0 0.0149012 0.0297637
 0.0149356 0.0150721 0.0297813 0.0616435 0.0776606 0.0485582 0.0224025 0.0383524 0 0
 0.0148887 0.0297399 0.0149255 0.0150481 0.0297319 0.0615509 0.0775569 0.048494 0.0223737 0.038296
 0 0 0.0148561 0.0296815 0.0148974 0.0149905 0.0296209 0.0613661 0.0773527 0.0483548
 0.0223013 0.038171 0 0 0.0147827 0.0295566 0.0148322 0.014881 0.0294322 0.0611185
 0.0770896 0.0481296 0.0221627 0.037963 0 0 0.014654 0.0293566 0.0147127 0.0147393
 0.0292735 0.0611855 0.0772096 0.0479801 0.0219887 0.037805 0 0 0.0145303 0.0292407
 0.0145745 0.0830024 0.137618 0.223965 0.218238 0.130851 0.0814137 0.133528 0.0400783 0.0312321
 0.0529052 0.110363 0.0661876 0.205202 0.270639 0.319722 0.291004 0.220991 0.183917 0.241886
 0.0706166 0.153866 0.0896478 0.0498216 0.117117 0.199113 0.310451 0.499372 0.480851 0.28819
 0.192064 0.300588 0.118163 0.236446 0.0951189 0.0548035 0.153581 0.19682 0.275282 0.453694
 0.481519 0.319639 0.215337 0.299644 0.0484138 0.0603314 0.0388216 0.0184643 0.0126559 0.0243982
 0.0310522 0.093966 0.118475 0.150288 0.15047 0.118699 0.0939772 0.118527 0.0382432 0.0746895
 0.0593332 0.0239634 0.00655603 0.0125105 0.030422 0.0937308 0.118271 0.150005 0.150046 0.118217
 0.0936168 0.11821 0.0381784 0.0745844 0.0592096 0.0238922 0.00654183 0.0124897 0.0303517 0.0937104
 0.118261 0.149969 0.150021 0.118195 0.093592 0.118181 0.0381767 0.0745957 0.0592102 0.0238954
 0.00654583 0.0124941 0.0303509 0.0937442 0.118305 0.150022 0.150054 0.118215 0.0936146 0.118218
 0.0381972 0.0746342 0.0592345 0.0239103 0.00655437 0.0125077 0.0303661 0.0938634 0.118473 0.150194
 0.150196 0.11832 0.093708 0.118345 0.0382905 0.0747793 0.0593416 0.0239713 0.00657994 0.0125548
 0.0304402 0.0941774 0.118861 0.150633 0.150592 0.11863 0.0939862 0.118694 0.0385161 0.0751019
 0.0596059 0.0241442 0.00664743 0.0126747 0.0306386 0.0943531 0.118904 0.150742 0.150882 0.118955
 0.0942629 0.118918 0.0385476 0.0751053 0.0596869 0.0243171 0.00673222 0.0127844 0.0307575 0.0595099
 0.0925061 0.147929 0.148795 0.0933041 0.0598582 0.0929252 0.0578791 0.0911077 0.0919381 0.0586647
 0.0379239 0.0376727 0.0582608 0.0567842 0.0871114 0.13902 0.141128 0.089289 0.0574634 0.0882554
 0.0151884 0.0254373 0.0241384 0.0127532 -4.40751e-17 1.18861e-17 0.013605 0.0535568 0.083678 0.0857636
 0.0553021 0.036422 0.0362834 0.0543776 0.0524368 0.0774431 0.126057 0.131861 0.0807129 0.149825
 0.14981 0.118078 0.0934928 0.0936027 0.118259 0.118012 0.0592325 0.0239198 0.00655387 0.012528
 0.03824 0.074588 0.0304003 0.11819 0.0935972 0.0937186 0.118262 0.149965 0.150013 0.118182
 0.0592091 0.0238848 0.00653215 0.0124791 0.0381865 0.0745667 0.030355 0.118195 0.0935993 0.093712
 0.118247 0.149977 0.150024 0.118188 0.0592059 0.0238846 0.00653243 0.0124792 0.0381858 0.0745663
 0.0303544 0.118164 0.0935758 0.0936937 0.118231 0.149946 0.149989 0.118161 0.0591592 0.0238642
 0.00652863 0.012473 0.0381622 0.0745157 0.0303321 0.118007 0.0934632 0.093608 0.11814 0.149811
 0.149815 0.118039 0.0589781 0.0237761 0.00650566 0.012434 0.0380572 0.0743189 0.0302349 0.117571
 0.0931199 0.0933106 0.117805 0.149389 0.149326 0.117661 0.0586063 0.0235494 0.00643639 0.0123159
 0.0377815 0.0739144 0.0299817 0.117275 0.0927444 0.0928689 0.117304 0.148873 0.14895 0.117223
 0.0590047 0.0234984 0.00636702 0.0121878 0.0376754 0.0743091 0.0299021 0.121704 0.0954724 0.0945527
 0.119056 0.151923 0.153666 0.120099 0.0663689 0.0263342 0.00693392 0.0131086 0.0409304 0.0822383
 0.0329579 0.0445028 0.020405 0.135887 0.110021 0.0540702 0.01944 0.0106749 6.88267e-18 -6.2463e-18
 0.00873596 0.0175558 0.00965833 0.0716169 0.0331456 0.0412814 0.099366 0.200731 0.167415 0.083911
 0.0653731 0.0403164 8.01372e-18 6.33714e-31 0.030097 0.0573649 0.0345577 0.0360759 0.0564922 0.0365606
 0.0144264 0.00752311 0.0145649 0.0232773 0.0358352 0.0561938 0.0900705 0.0900089 0.0561375 0.0358418
 0.0561978 0.0356044 0.0143676 0.00741427 0.0143887 0.0228365 0.0357975 0.0561731 0.0900589 0.0900233
 0.0560834 0.0358417 0.0562041 0.0355884 0.0143402 0.00740529 0.0143832 0.0228248 0.0357962 0.0561779
 0.0900613 0.0900244 0.0560821 0.0358478 0.0562094 0.0355903 0.0143415 0.00740841 0.0143871 0.0228261
 0.0357962 0.0561795 0.0900621 0.0900278 0.056084 0.0358422 0.0562035 0.0355906 0.0143431 0.00741189
 0.014388 0.0228249 0.0357807 0.0561373 0.0900166 0.0900034 0.0560656 0.00769968 0.0145353 0.01437
 0.00739705 -2.82392e-17 -3.22418e-18 0.0074263 0.0144932 0.0351602 0.0896081 0.0896738 0.0352663 0.0145915
 0.0350871 0.00760252 0.0143596 0.0142652 0.00738672 3.44521e-17 -3.79955e-17 0.00734643 0.01415 0.0348434
 0.0888195 0.0889814 0.034896 0.0143854 0.0346991 0.0137086 0.035124 1.94123e-17 -5.31391e-17 0.0137579
 0.0140666 0.0352647 0.0897824 0.0892351 0.0344379 0.0144523 0.0346348 0.0142783 0.0362587 1.30007e-17
 -4.78583e-17 0.0139509 0.0183874 0.0458049 0.109393 0.103278 0.0397329 0.0173253 0.0422215 0.0558924
 0.0794383 0.0101221 0.0222921 0.0320655 0.0685366 0.115327 0.178844 0.162548 0.0943201 0.0618935
 0.103917 0.107805 0.142408 0.128532 0.0858551 0.0656467 0.0741816 0.0961819 0.130914 0.202832
 0.297017 0.274864 0.170414 0.119162 0.186043 0.436518 0.645526 0.645549 0.436557 0.202053
 0.202057 0.436524 0.235303 0.346402 0.346478 0.23531 0.235175 0.27864 0.392867 0.392974
 0.279028 0.278816 0.64857 0.577231 0.391886 0.277877 0.392128 0.577381 0.491685 0.346663
 0.235696 0.0903529 0.0906061 0.235277 0.346429 0.23564 1.11865 0.986485 0.645405 0.436424
 0.645427 0.986479 0.828744 0.0865193 0.064741 0.0601181 0.07645 0.111583 0.116359 0.0811037
 0.0461429 0.0424385 0.0557595 0.0382231 0.0231456 0.0349706 0.0409538 0.0255293 -3.38878e-17 4.51067e-17
 0.0250105 0.107775 0.0837337 0.0791929 0.0961124 0.128584 0.135782 0.101843 0.0602278 0.0549397
 0.0712608 0.0489372 0.0296089 0.0448188 0.0593584 0.0509163 0.0300259 0.0172686 0.0404457 0.0273804
 0.0135927 -2.81385e-16 1.44383e-16 0.0158487 0.125079 0.103658 0.10182 0.120074 0.148596 0.15206
 0.123451 0.0791208 0.0723894 0.0923313 0.0697244 0.0549964 0.0643612 0.127607 0.113959 0.11622
 0.132905 0.151502 0.148228 0.131011 0.0968492 0.0916501 0.110079 0.0868675 0.0735528 0.0703478
 0.0787101 0.0829223 0.0542822 0.0474967 0.0623893 0.0477533 0.0350981 0.029463 0.0353612 0.0415864
 0.0169156 0.00946455 0.0219516 0.0128971 0.00491745 -2.40462e-17 5.36532e-17 0.00717352 0.111511 0.0991929
 0.103722 0.121664 0.138264 0.132398 0.116966 0.0932198 0.0978034 0.109178 0.0787527 0.069841
 0.0831204 0.0161711 0.0273173 0.0361237 0.0360986 0.0262368 0.0489892 0.0730685 0.050542 0.0463531
 0.0613566 0.0990098 0.110607 0.0676529 0.0176083 0.0277926 1.10885e-16 6.72065e-17 0.0171615 0.0723087
 0.0579324 0.0511212 0.0566471 0.0644223 0.0378021 0.0307172 0.0430539 0.0310298 0.0195703 0.015046
 0.0193254 0.0252814 0.00732721 0.00377003 0.0100659 0.00347228 0.000409742 -1.89735e-18 -1.18768e-17 0.00174545
 0.0364659 0.0370168 0.046004 0.0600981 0.0455691 0.0460929 0.0582255 0.0762462 0.0796029 0.0573957
 0.0205244 0.0310181 0.0291942 0.0112798 0.0203607 0.0206337 0.0118998 7.74404e-17 -9.68652e-18 0.0118214
 0.0317243 0.0351132 0.0266293 0.0340349 0.0408397 0.0437189 0.0402821 0.0373539 0.0561113 0.0651449
 0.0497049 0.0609852 0.0780827 0.0943148 0.0850982 0.0711445 0.0529604 0.0570646 0.0724203 0.0861481
 0.0667639 0.0736595 0.0894684 0.111113 0.108954 0.0889697 0.0277155 0.0282305 0.0365483 0.0431928
 0.0352031 0.0380194 0.0483579 0.0458204 0.0119198 0.0208732 0.0205787 0.00864501 0.0187556 1.48245e-16
 -1.9417e-17 0.0104227 0.062885 0.0642186 0.0768349 0.0914278 0.07576 0.074012 0.0845484 0.102981
 0.107219 0.0885424 0.0302063 0.0316045 0.0419663 0.051265 0.0400692 0.0423029 0.0527676 0.0522989
 0.0103047 0.0210537 0.019979 0.00277769 0.00724135 0.0098577 0.00557749 5.79723e-17 -5.23851e-18 0.00417603
 0.0194206 0.0259937 0.0150677 0.0206695 0.0289563 0.0368568 0.0349968 0.0276721 0.0465928 0.0553577
 0.0446485 0.0459208 0.0542033 0.0643119 0.0647596 0.0550073 0.0727382 0.08386 0.0736525 -9.12002e-05
 0.000821049 0.00333568 0.00204969 8.66116e-18 1.82716e-20 0.000649696 0.00720425 0.010483 0.00536443 0.00742623
 0.00398271 0.000474568 -7.13143e-06 0.00189546 -0.000387934 0.000902915 -9.98971e-05 0.00818096 0.0142487 0.0194637
 0.016629 0.0125887 0.027352 0.0328493 0.0241685 0.0289278 0.0368736 0.0438231 0.0412893 0.0351617
 0.0517235 0.0575937 0.0490877 0.569524 0.869723 0.869746 0.569522 0.20205 0.20202 0.569496
 1.02124 0.930014 0.569522 0.869728 0.762574 1.26583 1.36403 1.37778 1.32053 1.18812
 1.14718 1.29501 1.3784 1.32108 1.37806 1.37812 1.39719 1.36583 1.27054 1.15249
 1.19047 1.29741 1.0278 0.933607 1.07482 0.877564 0.574426 0.574428 0.877547 0.574406
 0.563148 0.859535 0.859559 0.563155 0.202049 0.202021 0.563126 1.09494 1.09877 0.56315
 0.859544 0.864642 0.556251 0.848435 0.848471 0.556273 0.202037 0.202004 0.556236 1.08272
 1.08692 0.556283 0.848462 0.854011 0.499148 0.754035 0.754099 0.499224 0.201992 0.201963
 0.499165 1.00569 1.04302 0.49924 0.754109 0.802205 0.566376 0.864972 0.865082 0.56652
 0.201857 0.201791 0.566425 1.05642 1.01278 0.566632 0.86514 0.810917 0.572179 0.874594
 0.874753 0.572429 0.201574 0.201479 0.572279 1.10477 1.10112 0.572646 0.874868 0.869949
 0.56398 0.861937 0.861992 0.564137 0.20115 0.201052 0.564013 1.09899 1.10368 0.564374
 0.862052 0.868312 0.561702 0.85813 0.857328 0.560681 0.201027 0.201103 0.561064 1.09069
 1.09229 0.560281 0.856735 0.859083 0.540324 0.818821 0.814789 0.534359 0.20345 0.204502
 0.536916 1.05588 1.07229 0.530907 0.811613 0.834328 0.564067 0.831941 0.816544 0.538735
 0.549915 1.03352 1.0347 0.523155 0.804101 0.808471 0.745511 1.00032 0.955885 0.653494
 0.694942 0.865513 0.957227 0.415394 0.593799 0.72023 1.26006 1.36208 1.36338 1.26518
 1.26263 1.39717 1.39718 1.36371 1.36646 1.27117 1.36615 1.36567 1.26796 1.10648
 1.1089 1.26958 0.871047 0.57033 0.574429 0.877542 0.874294 0.871067 0.570338 0.570314
 1.25187 1.35804 1.35951 1.25755 1.25473 1.39706 1.39713 1.36081 1.36801 1.27037
 1.36685 1.18437 1.32626 1.34162 1.23709 1.21168 1.39445 1.39607 1.3502 1.24602
 1.34426 1.21653 1.36893 1.27421 1.10988 1.10697 1.2723 0.878862 0.575248 0.570341
 0.871052 0.874956 0.878894 0.575263 0.575234 1.38023 1.28712 1.37494 1.00172 0.872401
 0.567118 0.392753 0.575298 0.878888 0.732152 0.567169 0.392891 0.39283 1.37905 1.28115
 1.10318 1.108 1.28415 1.05689 1.01276 0.753621 0.498951 0.567259 0.866003 0.811155
 0.75372 0.499083 0.498999 1.39662 1.39664 1.34453 1.24658 1.36403 1.32639 1.18433
 1.21679 1.28061 1.37888 1.36382 1.28514 1.37978 1.2829 1.00565 1.04347 0.849293
 0.556871 0.499198 0.753787 0.802472 0.84944 0.55708 0.556951 1.34193 1.2377 1.21197
 1.27167 1.36794 1.39622 1.39457 1.37423 1.35886 1.25298 1.35078 1.26555 1.36649